; Only ever consumed by grompp so genion has a tpr to work from. Never run.
integrator             = steep
nsteps                 = 0
cutoff-scheme          = Verlet
nstlist                = 20
ns_type                = grid
pbc                    = xyz
verlet-buffer-tolerance = 0.005

coulombtype            = reaction-field
rcoulomb               = 1.1
epsilon_r              = 15
epsilon_rf             = 0
vdw-type               = cutoff
vdw-modifier           = Potential-shift-verlet
rvdw                   = 1.1
