; Production. 20 fs is the standard Martini 3 timestep; the bonds that would
; otherwise limit it are constraints in the topology, not springs.
integrator             = md
dt                     = 0.020
nsteps                 = 1000000        ; 20 ns
nstxout-compressed     = 2500           ; a frame every 50 ps
compressed-x-grps      = Protein
nstlog                 = 10000
nstenergy              = 10000
cutoff-scheme          = Verlet
nstlist                = 20
ns_type                = grid
pbc                    = xyz
verlet-buffer-tolerance = 0.005

coulombtype            = reaction-field
rcoulomb               = 1.1
epsilon_r              = 15
epsilon_rf             = 0
vdw-type               = cutoff
vdw-modifier           = Potential-shift-verlet
rvdw                   = 1.1

tcoupl                 = v-rescale
tc-grps                = Protein Solvent
tau_t                  = 1.0 1.0
ref_t                  = 310 310

pcoupl                 = parrinello-rahman
pcoupltype             = isotropic
tau_p                  = 12.0
compressibility        = 3e-4
ref_p                  = 1.0

gen_vel                = no
continuation           = yes
